LAMMPS data file via write_data, version 18 Jun 2019, timestep = 0

459 atoms
1 atom types
1356 bonds
1 bond types

-1.0000000000000000e+01 1.0000000000000000e+01 xlo xhi
-1.0000000000000000e+01 1.0000000000000000e+01 ylo yhi
-1.0000000000000001e-01 1.0000000000000001e-01 zlo zhi
0.0000000000000000e+00 0.0000000000000000e+00 0.0000000000000000e+00 xy xz yz

Masses

1 1

Pair Coeffs # soft

1 10

Bond Coeffs # harmonic

1 1 1

Atoms # molecular

1 0 1 1.3079377895056314e+00 -8.9773578204409290e+00 0.0000000000000000e+00 0 0 0
2 0 1 1.0815045435332120e+00 -5.9735354007718842e+00 0.0000000000000000e+00 0 0 0
500 0 1 8.6697693500044934e+00 -2.5765756748190372e+00 0.0000000000000000e+00 0 0 0
4 0 1 -2.3966779195678134e+00 -5.4227594741168561e+00 0.0000000000000000e+00 0 0 0
5 0 1 -2.1506487637358687e+00 -7.3315098698214953e-01 0.0000000000000000e+00 0 0 0
6 0 1 8.4317839937967491e+00 -1.4975230656142919e+00 0.0000000000000000e+00 0 0 0
499 0 1 -7.5477836060212411e-02 1.7701240742458673e+00 0.0000000000000000e+00 0 0 0
8 0 1 8.1420945032249392e-01 -7.8445176693738894e-01 0.0000000000000000e+00 0 0 0
9 0 1 2.5544731535244054e+00 3.3554481200089015e-01 0.0000000000000000e+00 0 0 0
10 0 1 4.2162777015695951e+00 -2.5430445730805200e+00 0.0000000000000000e+00 0 0 0
498 0 1 1.8242615230379382e+00 -3.3145038993909592e+00 0.0000000000000000e+00 0 0 0
12 0 1 -3.5589652221601566e+00 5.0209647635256083e-01 0.0000000000000000e+00 0 0 0
13 0 1 5.1895445243830629e+00 1.9636003605754517e+00 0.0000000000000000e+00 0 0 0
14 0 1 6.4664227094907787e+00 5.6757422662241908e+00 0.0000000000000000e+00 0 0 0
15 0 1 8.2855610122437255e+00 -3.6467053669625527e+00 0.0000000000000000e+00 0 0 0
16 0 1 -5.3815137046961716e+00 9.7948204054359387e+00 0.0000000000000000e+00 0 0 0
17 0 1 3.4209619751676552e+00 9.0795112638246245e-01 0.0000000000000000e+00 0 0 0
18 0 1 9.1388908066382974e+00 -4.3567928756930012e+00 0.0000000000000000e+00 0 0 0
19 0 1 4.2794931951174711e+00 -1.5285122571272165e+00 0.0000000000000000e+00 0 0 0
20 0 1 -8.9604903798935052e+00 9.4420656883858953e+00 0.0000000000000000e+00 0 0 0
21 0 1 4.2958429826411937e+00 -4.7290709468875090e+00 0.0000000000000000e+00 0 0 0
22 0 1 1.1651746006019064e+00 -8.0134037428610583e+00 0.0000000000000000e+00 0 0 0
23 0 1 9.3427347932911502e+00 8.5718972776036750e+00 0.0000000000000000e+00 -1 0 0
24 0 1 -4.5195719538699830e+00 9.1258778908935625e+00 0.0000000000000000e+00 0 0 0
25 0 1 -1.2869661267775783e+00 5.8770170299814684e+00 0.0000000000000000e+00 0 0 0
26 0 1 -3.7707307100974408e+00 2.6168549110835393e+00 0.0000000000000000e+00 0 0 0
497 0 1 3.9798868772531399e+00 8.3730605075996962e+00 0.0000000000000000e+00 0 0 0
28 0 1 9.0268985800995054e+00 -7.9847862880856901e-01 0.0000000000000000e+00 0 0 0
496 0 1 4.3077055396294313e+00 4.7548427902546031e-01 0.0000000000000000e+00 0 0 0
30 0 1 7.1772972687128629e+00 -8.9588737744090423e+00 0.0000000000000000e+00 0 0 0
31 0 1 -8.3855149118093895e+00 -1.7846249725308461e-01 0.0000000000000000e+00 0 0 0
32 0 1 -8.0949458786733040e+00 9.7177962049095541e+00 0.0000000000000000e+00 0 0 0
33 0 1 4.2862222342819258e+00 1.4967347843070282e+00 0.0000000000000000e+00 0 0 0
34 0 1 -7.6830239971255345e+00 5.3392302232834687e-01 0.0000000000000000e+00 0 0 0
35 0 1 -9.9507797825418010e+00 -9.2215898323819623e-01 0.0000000000000000e+00 0 0 0
36 0 1 -7.1143359051481569e+00 -8.1873413486022955e+00 0.0000000000000000e+00 0 0 0
37 0 1 -4.4037802709041172e+00 -5.6565549928525938e+00 0.0000000000000000e+00 0 0 0
38 0 1 -5.9989658764421394e+00 -5.9133505085861762e+00 0.0000000000000000e+00 0 0 0
39 0 1 9.0020009580037659e+00 -5.4484630558458118e+00 0.0000000000000000e+00 0 0 0
40 0 1 4.7493115012049625e+00 6.7645012078196132e+00 0.0000000000000000e+00 0 0 0
41 0 1 -4.5757481301609282e-01 -7.0610266992086119e+00 0.0000000000000000e+00 0 0 0
42 0 1 3.8793116960204266e+00 9.4287723117422075e+00 0.0000000000000000e+00 0 0 0
43 0 1 -6.0301819340335028e+00 1.2684233752979495e+00 0.0000000000000000e+00 0 0 0
44 0 1 7.2586372963701677e+00 7.1874234768686982e+00 0.0000000000000000e+00 0 0 0
495 0 1 -8.0100722016302814e+00 -3.3902725705377890e+00 0.0000000000000000e+00 0 0 0
46 0 1 6.0939020958248342e+00 -5.9924137824448565e-01 0.0000000000000000e+00 0 0 0
47 0 1 1.1524284374757059e+00 4.8860063101191109e+00 0.0000000000000000e+00 0 0 0
48 0 1 -7.0134868143819418e+00 -5.7311460712052114e+00 0.0000000000000000e+00 0 0 0
49 0 1 -7.5599091105831899e+00 -6.4506160179433243e+00 0.0000000000000000e+00 0 0 0
50 0 1 2.3823968296426656e+00 7.2733504249154670e+00 0.0000000000000000e+00 0 0 0
51 0 1 1.7032082666756949e+00 -1.2302939209281902e+00 0.0000000000000000e+00 0 0 0
52 0 1 6.4030959059021200e+00 6.6967699768906570e+00 0.0000000000000000e+00 0 0 0
494 0 1 4.6621159699278110e+00 9.9392576199269591e+00 0.0000000000000000e+00 0 -1 0
54 0 1 2.6422611108353156e+00 -2.7242580441140252e+00 0.0000000000000000e+00 0 0 0
55 0 1 -7.2350209011815281e-01 -1.0467261763629914e+00 0.0000000000000000e+00 0 0 0
56 0 1 5.1089896640917587e+00 -6.1172312725826927e+00 0.0000000000000000e+00 0 0 0
57 0 1 -4.4703695780673014e+00 -9.8848764858083893e+00 0.0000000000000000e+00 0 0 0
493 0 1 9.8434928133761090e-02 -1.4021192132203879e+00 0.0000000000000000e+00 0 0 0
59 0 1 5.5668297465025098e+00 8.3817692290674941e+00 0.0000000000000000e+00 0 0 0
60 0 1 -8.2014114334290813e+00 -5.5728762298960692e+00 0.0000000000000000e+00 0 0 0
61 0 1 3.1148148137061789e+00 6.7361673450578685e+00 0.0000000000000000e+00 0 0 0
62 0 1 5.1939570840577716e+00 -7.1849873748746136e+00 0.0000000000000000e+00 0 0 0
63 0 1 -2.5105347110781109e+00 -9.3148884477493894e+00 0.0000000000000000e+00 0 0 0
64 0 1 6.9429068375719680e+00 -1.8604756103378861e-01 0.0000000000000000e+00 0 0 0
65 0 1 1.6953755380789381e+00 -2.3409838671207872e-01 0.0000000000000000e+00 0 0 0
66 0 1 -7.3959249815518993e+00 2.2769415847630103e+00 0.0000000000000000e+00 0 0 0
67 0 1 5.0802338189579643e+00 -4.2587340209301336e+00 0.0000000000000000e+00 0 0 0
68 0 1 -6.4527765853303265e+00 -1.0433219106896203e+00 0.0000000000000000e+00 0 0 0
69 0 1 2.1407424281234633e+00 5.3345075118285745e+00 0.0000000000000000e+00 0 0 0
70 0 1 7.7794884466121239e+00 3.2803111995806944e+00 0.0000000000000000e+00 0 0 0
71 0 1 6.9571188450243859e+00 3.8120098636391742e+00 0.0000000000000000e+00 0 0 0
492 0 1 -2.9775120795665133e+00 2.2177394884858881e+00 0.0000000000000000e+00 0 0 0
73 0 1 -6.2390841220208078e+00 -9.6421518155658585e+00 0.0000000000000000e+00 0 0 0
74 0 1 8.6540411045373062e+00 -1.2677579033999464e-02 0.0000000000000000e+00 0 0 0
491 0 1 3.4867884259937032e+00 -3.1782547272515629e+00 0.0000000000000000e+00 0 0 0
76 0 1 -4.0558409865090272e+00 -6.3671829468875165e+00 0.0000000000000000e+00 0 0 0
77 0 1 -7.9529312895834048e+00 5.1277986376210301e+00 0.0000000000000000e+00 0 0 0
78 0 1 5.2663986334515300e-01 4.2053261017642107e+00 0.0000000000000000e+00 0 0 0
79 0 1 -9.0908743092832776e+00 7.5660337410767724e+00 0.0000000000000000e+00 0 0 0
80 0 1 7.8928425253401713e+00 -7.4645852419532588e-01 0.0000000000000000e+00 0 0 0
81 0 1 -1.7909109168591186e+00 -9.7917466304359522e+00 0.0000000000000000e+00 0 0 0
82 0 1 -5.7171593129759124e-01 -6.0682230012447107e+00 0.0000000000000000e+00 0 0 0
83 0 1 -3.5545988890074245e+00 -7.1101473892674782e+00 0.0000000000000000e+00 0 0 0
84 0 1 6.7866335857060776e+00 -8.1313621759951769e+00 0.0000000000000000e+00 0 0 0
85 0 1 1.4695004541814782e-01 8.4767957757812908e+00 0.0000000000000000e+00 0 0 0
490 0 1 5.7227670426483268e+00 -7.9202506525150538e+00 0.0000000000000000e+00 0 0 0
87 0 1 -6.6128462748805124e+00 3.5038544488607926e-01 0.0000000000000000e+00 0 0 0
88 0 1 5.2539129458628064e+00 -5.1580789110256795e+00 0.0000000000000000e+00 0 0 0
89 0 1 -7.0514167091361486e+00 1.3431111053815492e+00 0.0000000000000000e+00 0 0 0
90 0 1 6.1392090947634941e+00 -8.8089396800982893e+00 0.0000000000000000e+00 0 0 0
91 0 1 4.3789338390342714e+00 -6.8000018220890794e+00 0.0000000000000000e+00 0 0 0
92 0 1 -3.5592496767234394e+00 5.0391493944387999e+00 0.0000000000000000e+00 0 0 0
489 0 1 5.1517358626727727e-01 -9.7550088482577486e+00 0.0000000000000000e+00 0 0 0
94 0 1 -9.0748002367484535e+00 8.4768782927924846e+00 0.0000000000000000e+00 0 0 0
95 0 1 -5.6641931522562379e+00 2.8678766107670661e+00 0.0000000000000000e+00 0 0 0
96 0 1 8.3586723256269124e+00 4.9167936275008195e+00 0.0000000000000000e+00 0 0 0
97 0 1 2.9861359156196627e+00 3.8809916126830846e+00 0.0000000000000000e+00 0 0 0
488 0 1 6.0339825773407618e+00 1.4038753715385059e+00 0.0000000000000000e+00 0 0 0
99 0 1 -4.1701717919550960e+00 3.4224325467911143e+00 0.0000000000000000e+00 0 0 0
100 0 1 -1.6466584725578457e+00 -2.4598824983835037e+00 0.0000000000000000e+00 0 0 0
101 0 1 6.0435013162788778e+00 3.9501395683336149e-01 0.0000000000000000e+00 0 0 0
102 0 1 9.8895533035277694e-01 -3.8958638424897130e+00 0.0000000000000000e+00 0 0 0
103 0 1 -5.5761899390231449e+00 5.4869106633923792e+00 0.0000000000000000e+00 0 0 0
104 0 1 9.2931792935237176e+00 4.4053221336555062e+00 0.0000000000000000e+00 0 0 0
105 0 1 8.9298858150112039e+00 7.7194900726203102e+00 0.0000000000000000e+00 0 0 0
106 0 1 -5.5018440250243827e+00 5.1716572363794455e-01 0.0000000000000000e+00 0 0 0
107 0 1 -5.3097226853737913e+00 -9.2261629902323055e+00 0.0000000000000000e+00 0 0 0
108 0 1 -9.4824437394747481e+00 -1.9717043438301154e+00 0.0000000000000000e+00 0 0 0
109 0 1 -1.5560495651156927e+00 -8.6804494036239248e+00 0.0000000000000000e+00 0 0 0
110 0 1 -6.1773461678430763e+00 -8.6888502885784540e+00 0.0000000000000000e+00 0 0 0
111 0 1 -1.8125210373337257e+00 9.1885984509979863e+00 0.0000000000000000e+00 0 0 0
112 0 1 -4.3044805816149143e+00 -4.7810747416055630e+00 0.0000000000000000e+00 0 0 0
113 0 1 -9.9301356572151587e+00 -5.5935487253677501e+00 0.0000000000000000e+00 0 0 0
114 0 1 2.5685816868113065e+00 -1.6697383515866466e+00 0.0000000000000000e+00 0 0 0
115 0 1 -6.4554492280866596e+00 -6.5993825483891371e+00 0.0000000000000000e+00 0 0 0
116 0 1 9.9310031438869792e+00 7.2228353545683461e+00 0.0000000000000000e+00 -1 0 0
117 0 1 3.4288693286509009e+00 -1.0899373369905785e+00 0.0000000000000000e+00 0 0 0
118 0 1 -8.0751031037351346e+00 -9.3388701454605343e+00 0.0000000000000000e+00 0 0 0
119 0 1 6.1724945166957887e+00 -4.4836468355633539e+00 0.0000000000000000e+00 0 0 0
120 0 1 3.4101377380301159e+00 -2.1012220498062195e+00 0.0000000000000000e+00 0 0 0
121 0 1 -8.8929577753038522e+00 5.7040229759965921e+00 0.0000000000000000e+00 0 0 0
122 0 1 -1.9608922492045568e+00 8.2809429330596558e+00 0.0000000000000000e+00 0 0 0
487 0 1 3.6796603702395281e+00 -7.4162707214596724e+00 0.0000000000000000e+00 0 0 0
486 0 1 -8.6786995504188198e+00 7.1927733055701992e-01 0.0000000000000000e+00 0 0 0
125 0 1 -5.9594541220533550e+00 3.7994272795200779e+00 0.0000000000000000e+00 0 0 0
126 0 1 5.7015711577437145e-01 7.5906046532539939e+00 0.0000000000000000e+00 0 0 0
127 0 1 -9.2060914157788751e+00 -5.9639162887422534e+00 0.0000000000000000e+00 0 0 0
128 0 1 7.5281821323457656e+00 9.0101278065706971e+00 0.0000000000000000e+00 0 0 0
129 0 1 3.0606454797421634e-03 6.7953618652189007e-01 0.0000000000000000e+00 0 0 0
130 0 1 7.7481824716298604e+00 1.3359554104527493e+00 0.0000000000000000e+00 0 0 0
131 0 1 8.4847931253809463e+00 9.0501412324990049e-01 0.0000000000000000e+00 0 0 0
132 0 1 -9.9910387850716020e+00 8.0497948649355564e+00 0.0000000000000000e+00 0 0 0
133 0 1 -4.0248641144894490e+00 6.7251331826717085e+00 0.0000000000000000e+00 0 0 0
134 0 1 -4.5584391089215259e-01 -8.5256657053938127e+00 0.0000000000000000e+00 0 0 0
135 0 1 9.5280523529254815e+00 2.4419828380405395e+00 0.0000000000000000e+00 0 0 0
136 0 1 -6.2113887514545052e+00 4.7428931652753015e+00 0.0000000000000000e+00 0 0 0
137 0 1 5.6200406478765643e+00 9.4560133286585710e+00 0.0000000000000000e+00 0 0 0
138 0 1 2.4199900041676532e+00 1.2973578132311392e+00 0.0000000000000000e+00 0 0 0
139 0 1 -1.3686624591472665e+00 -5.6317899456337255e+00 0.0000000000000000e+00 0 0 0
485 0 1 8.1464499318750967e+00 -4.7235642922989953e+00 0.0000000000000000e+00 0 0 0
141 0 1 4.2997771715569399e+00 -5.2854808154484623e-01 0.0000000000000000e+00 0 0 0
142 0 1 -4.6376807261086661e+00 -7.1686238559002913e+00 0.0000000000000000e+00 0 0 0
143 0 1 7.4161595100116529e+00 -9.9007352451151398e+00 0.0000000000000000e+00 0 0 0
144 0 1 1.6193361505820452e+00 7.5192660196428385e-01 0.0000000000000000e+00 0 0 0
484 0 1 4.1836341897255203e-01 -8.7207236311973997e+00 0.0000000000000000e+00 0 0 0
483 0 1 -1.8944828028879037e+00 5.2344734074876342e+00 0.0000000000000000e+00 0 0 0
147 0 1 4.3318927027127003e+00 -5.7118252869330135e+00 0.0000000000000000e+00 0 0 0
148 0 1 -8.1692023794963298e+00 8.7208893461993497e+00 0.0000000000000000e+00 0 0 0
482 0 1 2.9175956643139056e+00 9.8918527277660715e+00 0.0000000000000000e+00 0 0 0
150 0 1 6.5808242430628958e+00 9.5603154096914089e+00 0.0000000000000000e+00 0 -1 0
151 0 1 7.9297419759622585e+00 -8.1076267037690570e+00 0.0000000000000000e+00 0 0 0
481 0 1 1.2988458890920622e+00 -9.8930884909826950e+00 0.0000000000000000e+00 0 0 0
153 0 1 -3.3933423489741976e+00 -8.8834565835395658e+00 0.0000000000000000e+00 0 0 0
154 0 1 4.7720714579608998e+00 5.7307727813764142e+00 0.0000000000000000e+00 0 0 0
155 0 1 7.3001927290424469e+00 6.2494134455436274e+00 0.0000000000000000e+00 0 0 0
156 0 1 -8.3303238649178155e+00 6.6720251573261748e+00 0.0000000000000000e+00 0 0 0
157 0 1 9.1577555709654135e+00 5.3810342997405947e+00 0.0000000000000000e+00 0 0 0
158 0 1 8.1573814524930484e+00 6.9323435607978752e+00 0.0000000000000000e+00 0 0 0
159 0 1 7.1700203799233293e+00 -7.3416570279719018e+00 0.0000000000000000e+00 0 0 0
160 0 1 6.4817414389548347e+00 4.6258783912335488e+00 0.0000000000000000e+00 0 0 0
480 0 1 1.7859188956953069e+00 -2.2782663078686962e+00 0.0000000000000000e+00 0 0 0
162 0 1 -8.9192985972753647e-01 4.9327113200353079e+00 0.0000000000000000e+00 0 0 0
163 0 1 -2.4506822269448216e+00 -6.9414942043341901e+00 0.0000000000000000e+00 0 0 0
164 0 1 -6.3532696376980287e+00 9.4025428966578097e+00 0.0000000000000000e+00 0 -1 0
165 0 1 -7.2366237195752303e+00 -5.0495227536434628e+00 0.0000000000000000e+00 0 0 0
166 0 1 -6.5754497440115900e+00 7.3881987598713650e+00 0.0000000000000000e+00 0 0 0
167 0 1 -3.7567211836361025e+00 5.9360770008529720e+00 0.0000000000000000e+00 0 0 0
168 0 1 -6.2323343580512880e+00 -7.7348756153307594e+00 0.0000000000000000e+00 0 0 0
169 0 1 -3.4753152854906544e+00 -4.3071029453142131e+00 0.0000000000000000e+00 0 0 0
170 0 1 -9.1591084111442296e+00 6.7694991152964477e+00 0.0000000000000000e+00 0 0 0
171 0 1 1.6468447294653643e-01 -4.4623451650671644e+00 0.0000000000000000e+00 0 0 0
172 0 1 1.9974914626555123e+00 -7.5043510656571426e+00 0.0000000000000000e+00 0 0 0
479 0 1 3.0000105738762084e+00 8.8294327957794856e+00 0.0000000000000000e+00 0 0 0
174 0 1 -9.8434640278844743e+00 9.0851428948282091e+00 0.0000000000000000e+00 0 0 0
175 0 1 3.0521489992963158e+00 2.8614549569977843e+00 0.0000000000000000e+00 0 0 0
176 0 1 -1.0572532698943231e+00 6.7970021127856590e+00 0.0000000000000000e+00 0 0 0
177 0 1 -1.1612513227438370e-01 -3.2521613688137663e-01 0.0000000000000000e+00 0 0 0
178 0 1 2.1600987750377953e-01 -5.5112100817855350e+00 0.0000000000000000e+00 0 0 0
179 0 1 -1.6339207640974607e+00 1.1834341410377007e+00 0.0000000000000000e+00 0 0 0
180 0 1 4.7430428235000832e+00 4.7470266363716895e+00 0.0000000000000000e+00 0 0 0
181 0 1 8.0081888550660487e+00 7.9689239127365354e+00 0.0000000000000000e+00 0 0 0
478 0 1 9.1955326425432915e+00 -3.4924498137308824e+00 0.0000000000000000e+00 0 0 0
183 0 1 -3.5400926160849489e+00 -9.6732241111512565e+00 0.0000000000000000e+00 0 0 0
184 0 1 -6.2412651254548006e+00 -4.8423805691525592e+00 0.0000000000000000e+00 0 0 0
477 0 1 6.8997474137394548e+00 1.8429232322012794e+00 0.0000000000000000e+00 0 0 0
476 0 1 7.6633624842070738e+00 -2.9487246055541849e+00 0.0000000000000000e+00 0 0 0
187 0 1 -2.7988212639602752e+00 7.2359402777760096e-02 0.0000000000000000e+00 0 0 0
188 0 1 8.8612981282868049e+00 -6.4684844904820293e+00 0.0000000000000000e+00 0 0 0
475 0 1 1.0835469031345095e+00 -7.0482364434204117e+00 0.0000000000000000e+00 0 0 0
190 0 1 -8.0408655790909993e+00 1.4764263642886313e+00 0.0000000000000000e+00 0 0 0
191 0 1 2.1632928448710587e+00 -9.6002569121365262e+00 0.0000000000000000e+00 0 0 0
192 0 1 -1.3335817205317593e+00 -6.7733968038757659e+00 0.0000000000000000e+00 0 0 0
193 0 1 3.4709403344589429e+00 -5.2834964407041349e+00 0.0000000000000000e+00 0 0 0
194 0 1 7.3170373091419236e+00 5.2181352579098217e+00 0.0000000000000000e+00 0 0 0
195 0 1 -3.8148402962388985e+00 7.5166067712554892e+00 0.0000000000000000e+00 0 0 0
196 0 1 5.1887919078438607e+00 -4.3708467811958585e-02 0.0000000000000000e+00 0 0 0
197 0 1 5.9294101191073523e+00 -2.5458518522414764e+00 0.0000000000000000e+00 0 0 0
198 0 1 -9.3466992102713657e+00 2.4324862606159492e+00 0.0000000000000000e+00 0 0 0
199 0 1 8.3643533416086804e+00 9.7464734365411090e+00 0.0000000000000000e+00 0 -1 0
200 0 1 -9.9904468370778048e+00 6.1267904848346788e+00 0.0000000000000000e+00 0 0 0
201 0 1 -8.2729992029140789e+00 7.7248527347647524e+00 0.0000000000000000e+00 0 0 0
202 0 1 -5.2551952835411004e+00 -5.2995450212440334e+00 0.0000000000000000e+00 0 0 0
203 0 1 1.1354424345315017e-01 -2.4330187442163531e+00 0.0000000000000000e+00 0 0 0
204 0 1 -6.5803272847062706e+00 5.7014546880237233e+00 0.0000000000000000e+00 0 0 0
205 0 1 -7.8363534249694640e+00 -7.4282593684355991e+00 0.0000000000000000e+00 0 0 0
206 0 1 4.7173344485359969e-01 5.7402997779712308e+00 0.0000000000000000e+00 0 0 0
207 0 1 -4.3908457767863815e+00 -8.9051010218674165e+00 0.0000000000000000e+00 0 0 0
208 0 1 -4.3167275240498837e+00 4.3415693625307590e+00 0.0000000000000000e+00 0 0 0
209 0 1 9.3487599517672813e+00 8.7706838605121185e-01 0.0000000000000000e+00 0 0 0
210 0 1 9.2335849518027473e+00 -9.5132056470888582e+00 0.0000000000000000e+00 0 0 0
211 0 1 3.8610044967063484e+00 5.3124991530944587e+00 0.0000000000000000e+00 0 0 0
474 0 1 -7.3907849369805758e+00 -1.6869546977895382e+00 0.0000000000000000e+00 0 0 0
213 0 1 4.3376235919276418e+00 -3.6404239655922179e+00 0.0000000000000000e+00 0 0 0
473 0 1 -4.3243935266611189e-01 5.8764623606268085e+00 0.0000000000000000e+00 0 0 0
472 0 1 2.9560322192979722e+00 5.8331398100727139e+00 0.0000000000000000e+00 0 0 0
216 0 1 -4.8894344619121464e+00 -3.6636790393985308e-01 0.0000000000000000e+00 0 0 0
217 0 1 -3.8027476948423269e+00 -3.8135593475739604e-01 0.0000000000000000e+00 0 0 0
218 0 1 -2.2947308698079905e+00 3.8236385919549498e+00 0.0000000000000000e+00 0 0 0
219 0 1 7.0857885300601922e+00 8.0532096593720155e+00 0.0000000000000000e+00 0 0 0
471 0 1 1.8750409347764201e+00 -5.4003827463598917e+00 0.0000000000000000e+00 0 0 0
221 0 1 1.3831393435460182e+00 5.8011665492979354e+00 0.0000000000000000e+00 0 0 0
222 0 1 -1.0221538161090997e+00 -9.3397720127644615e+00 0.0000000000000000e+00 0 1 0
223 0 1 -9.1614478419857814e+00 -2.9039810856821813e+00 0.0000000000000000e+00 0 0 0
224 0 1 5.5982620729628074e+00 6.2177031102746483e+00 0.0000000000000000e+00 0 0 0
225 0 1 7.8538162662076338e+00 2.2593390562972040e+00 0.0000000000000000e+00 0 0 0
226 0 1 7.0238134181178182e+00 -1.1475270035035479e+00 0.0000000000000000e+00 0 0 0
227 0 1 7.9861682773371356e-01 1.8321823740587817e-01 0.0000000000000000e+00 0 0 0
228 0 1 -9.8024219546009146e+00 -3.8761215011029808e+00 0.0000000000000000e+00 0 0 0
229 0 1 5.3931976120887537e+00 3.0716934004524266e+00 0.0000000000000000e+00 0 0 0
230 0 1 -4.9219510753518856e+00 1.3605513792840256e+00 0.0000000000000000e+00 0 0 0
231 0 1 -1.6141494717796849e+00 -3.4624902723793820e+00 0.0000000000000000e+00 0 0 0
470 0 1 -6.1490393119768045e+00 -3.1377536726209065e+00 0.0000000000000000e+00 0 0 0
233 0 1 -5.8357801931958360e+00 6.5616423371722590e+00 0.0000000000000000e+00 0 0 0
234 0 1 9.3656257455353931e-01 -1.8428166062792375e+00 0.0000000000000000e+00 0 0 0
235 0 1 1.3409357309044836e+00 3.8124432492867744e+00 0.0000000000000000e+00 0 0 0
236 0 1 -4.2430866654005781e+00 -2.8769318360581266e+00 0.0000000000000000e+00 0 0 0
237 0 1 -2.7517969441026935e+00 -4.6746146849974410e+00 0.0000000000000000e+00 0 0 0
238 0 1 2.0674483908655574e+00 6.4161053418070289e+00 0.0000000000000000e+00 0 0 0
239 0 1 -2.7208727896772071e+00 1.2000414614261175e+00 0.0000000000000000e+00 0 0 0
240 0 1 -2.7965697646484591e+00 8.7786130059549627e+00 0.0000000000000000e+00 0 0 0
241 0 1 3.1962928310902505e+00 1.8078189020670798e+00 0.0000000000000000e+00 0 0 0
469 0 1 7.7261961437880302e+00 2.7650609746345189e-01 0.0000000000000000e+00 0 0 0
243 0 1 -2.8777183490944536e+00 7.7801163920975185e+00 0.0000000000000000e+00 0 0 0
244 0 1 -2.5901101810576099e+00 4.7206783320854928e+00 0.0000000000000000e+00 0 0 0
468 0 1 -5.3110128656291833e+00 -2.5022829904506905e+00 0.0000000000000000e+00 0 0 0
246 0 1 -8.9960469256162465e+00 -9.6138125728272339e+00 0.0000000000000000e+00 0 0 0
247 0 1 -2.7981744244563700e+00 5.7361639518338414e+00 0.0000000000000000e+00 0 0 0
248 0 1 -9.0612182568198261e+00 1.5913959262994393e+00 0.0000000000000000e+00 0 0 0
249 0 1 3.9240351881520859e+00 6.2658651512901500e+00 0.0000000000000000e+00 0 0 0
250 0 1 -3.4694878741544102e+00 -5.3826394948758427e+00 0.0000000000000000e+00 0 0 0
251 0 1 5.6320098083392907e+00 5.1866769540019959e+00 0.0000000000000000e+00 0 0 0
252 0 1 -4.5621653210278366e+00 5.2711608334628970e+00 0.0000000000000000e+00 0 0 0
253 0 1 4.4726340308180035e+00 -9.0531909765174934e+00 0.0000000000000000e+00 0 0 0
254 0 1 -8.2640526213452059e+00 -1.0683561916250710e+00 0.0000000000000000e+00 0 0 0
255 0 1 -3.1681062040870582e+00 3.3128431786617654e+00 0.0000000000000000e+00 0 0 0
256 0 1 9.6957383034345312e+00 -6.3322128013122638e+00 0.0000000000000000e+00 0 0 0
257 0 1 -6.9309447702168070e+00 3.9933976575177876e+00 0.0000000000000000e+00 0 0 0
258 0 1 -9.3305360656467276e+00 -1.0454514662766456e-01 0.0000000000000000e+00 0 0 0
259 0 1 2.6708182680016179e+00 -3.7639976835099711e+00 0.0000000000000000e+00 0 0 0
260 0 1 2.8780624450189052e+00 -7.9657495307966366e+00 0.0000000000000000e+00 0 0 0
467 0 1 -7.2684354094446828e+00 9.0507804626952222e+00 0.0000000000000000e+00 0 0 0
262 0 1 4.5094091841196970e-01 3.2710800283906494e+00 0.0000000000000000e+00 0 0 0
263 0 1 2.2848756044842844e-01 -7.6957145202995569e+00 0.0000000000000000e+00 0 0 0
264 0 1 -8.1905771305003885e+00 -2.5080536706049363e+00 0.0000000000000000e+00 0 0 0
265 0 1 7.2373628155707408e+00 -4.0181291661592944e+00 0.0000000000000000e+00 0 0 0
266 0 1 8.0982290704181921e+00 5.8458273979552828e+00 0.0000000000000000e+00 0 0 0
267 0 1 1.0239454071022465e+00 -4.9297698108038936e+00 0.0000000000000000e+00 0 0 0
268 0 1 3.7369259781875286e+00 -8.4608794068593038e+00 0.0000000000000000e+00 0 0 0
269 0 1 5.8700009693544253e+00 -6.4682847813094497e+00 0.0000000000000000e+00 0 0 0
270 0 1 5.1720138478337230e+00 -8.6238559663120249e+00 0.0000000000000000e+00 0 0 0
271 0 1 -9.7443724520579202e+00 3.9581663088689218e+00 0.0000000000000000e+00 0 0 0
272 0 1 3.5117292399767308e+00 -4.2198935331004686e+00 0.0000000000000000e+00 0 0 0
273 0 1 -3.9737825169537189e-01 7.6551300040157173e+00 0.0000000000000000e+00 0 0 0
274 0 1 3.5608486517807503e+00 -6.3338890932733962e+00 0.0000000000000000e+00 0 0 0
275 0 1 7.7226235510807655e+00 -1.9315171436927070e+00 0.0000000000000000e+00 0 0 0
276 0 1 9.7983835153243781e+00 -4.8702613586561503e+00 0.0000000000000000e+00 -1 0 0
277 0 1 -1.5964870707875392e+00 -1.4913154772640880e+00 0.0000000000000000e+00 0 0 0
466 0 1 -9.8494749700418343e+00 -9.9497240638449700e+00 0.0000000000000000e+00 1 0 0
279 0 1 -5.5033584225429024e+00 8.7293835695654138e+00 0.0000000000000000e+00 0 0 0
280 0 1 -2.0737052050749094e+00 7.2237203812225204e+00 0.0000000000000000e+00 0 0 0
281 0 1 -4.2730620896074365e+00 -1.2162608985523118e+00 0.0000000000000000e+00 0 0 0
282 0 1 -8.9700823256421280e-01 -7.8275886395893650e+00 0.0000000000000000e+00 0 0 0
283 0 1 3.8807224087358527e+00 4.3257159143641566e+00 0.0000000000000000e+00 0 0 0
284 0 1 3.7233670805210330e+00 -9.5690887734538492e+00 0.0000000000000000e+00 0 1 0
285 0 1 -1.2823091656378161e+00 -4.3833338784724241e-01 0.0000000000000000e+00 0 0 0
286 0 1 -9.8630850578381448e+00 -8.0297685471755553e+00 0.0000000000000000e+00 1 0 0
287 0 1 5.4932377133160415e+00 -3.5771757949684169e+00 0.0000000000000000e+00 0 0 0
465 0 1 -9.8036714416524262e+00 3.0940982112614019e+00 0.0000000000000000e+00 0 0 0
289 0 1 9.6754118768256170e-01 -2.8772225995200262e+00 0.0000000000000000e+00 0 0 0
290 0 1 8.6314636778715155e+00 2.8258063476200270e+00 0.0000000000000000e+00 0 0 0
291 0 1 -9.3161048907438726e-01 3.0352110680597733e-01 0.0000000000000000e+00 0 0 0
292 0 1 -3.6282706356134256e+00 9.4125931775410407e+00 0.0000000000000000e+00 0 0 0
293 0 1 -7.3778075069710827e+00 8.0526228920231020e+00 0.0000000000000000e+00 0 0 0
294 0 1 -6.4488968897563304e+00 2.1617201286370591e+00 0.0000000000000000e+00 0 0 0
295 0 1 6.4206854919591159e+00 8.7246395823564988e+00 0.0000000000000000e+00 0 0 0
296 0 1 -1.9583547503503578e+00 2.0859309548001281e+00 0.0000000000000000e+00 0 0 0
297 0 1 -2.4994496580372552e+00 -1.7978238303348100e+00 0.0000000000000000e+00 0 0 0
298 0 1 -1.0409730428519737e-01 9.3894479838340885e+00 0.0000000000000000e+00 0 0 0
299 0 1 9.8998690993757634e+00 1.6756160257377832e+00 0.0000000000000000e+00 0 0 0
300 0 1 -6.9958452014950074e+00 -3.9480697236535089e+00 0.0000000000000000e+00 0 0 0
464 0 1 -1.9646667570348626e+00 3.3728702753512430e-01 0.0000000000000000e+00 0 0 0
302 0 1 2.1998846875044720e+00 3.3533445664358759e+00 0.0000000000000000e+00 0 0 0
303 0 1 -7.1887686122352301e+00 -9.9831139238046696e+00 0.0000000000000000e+00 0 0 0
304 0 1 5.1639276329002115e+00 9.6034827048063320e-01 0.0000000000000000e+00 0 0 0
305 0 1 -7.1465462135256406e+00 -2.8090862605998534e+00 0.0000000000000000e+00 0 0 0
306 0 1 -1.7593128951030117e+00 -7.6528660927573897e+00 0.0000000000000000e+00 0 0 0
307 0 1 3.8672503262471380e+00 2.3182922498304706e+00 0.0000000000000000e+00 0 0 0
308 0 1 -1.3849728539277351e+00 3.1433632725671234e+00 0.0000000000000000e+00 0 0 0
309 0 1 6.3141737507430307e-01 2.2934579710479319e+00 0.0000000000000000e+00 0 0 0
310 0 1 -8.3666380825679596e+00 2.3958453073353958e+00 0.0000000000000000e+00 0 0 0
311 0 1 7.5803398491430514e+00 4.3530350988512190e+00 0.0000000000000000e+00 0 0 0
312 0 1 -1.0425336697536896e+00 2.1160560120185146e+00 0.0000000000000000e+00 0 0 0
313 0 1 2.4364712589759918e-02 4.9045239151509108e+00 0.0000000000000000e+00 0 0 0
314 0 1 -7.3372262327031370e+00 -5.2380387568144471e-01 0.0000000000000000e+00 0 0 0
315 0 1 2.9370374488672830e+00 -9.0182378634390865e+00 0.0000000000000000e+00 0 1 0
316 0 1 -2.0386689976452956e+00 -6.2269262221305546e+00 0.0000000000000000e+00 0 0 0
463 0 1 -7.1269790525763987e+00 -9.0712940100541513e+00 0.0000000000000000e+00 0 0 0
462 0 1 3.0020206704358898e+00 4.8360586610843725e+00 0.0000000000000000e+00 0 0 0
319 0 1 9.6669540434997216e+00 -1.7986463635514482e-02 0.0000000000000000e+00 0 0 0
320 0 1 -8.5268185872633548e+00 -6.6458405222314365e+00 0.0000000000000000e+00 0 0 0
321 0 1 9.4778495167289449e+00 -1.7979747332885658e+00 0.0000000000000000e+00 0 0 0
322 0 1 -4.4572842523442180e+00 -2.0612175446053982e+00 0.0000000000000000e+00 0 0 0
323 0 1 -8.7483521614103097e+00 3.4121161272676215e+00 0.0000000000000000e+00 0 0 0
324 0 1 5.1244816119234251e+00 -1.9731862182594533e+00 0.0000000000000000e+00 0 0 0
461 0 1 1.3993741351940603e+00 2.8148507762429720e+00 0.0000000000000000e+00 0 0 0
460 0 1 -2.4829807029248707e+00 -3.8003950925154806e+00 0.0000000000000000e+00 0 0 0
327 0 1 -4.6502002468388213e+00 8.0784814356765544e+00 0.0000000000000000e+00 0 0 0
328 0 1 2.0901647197566398e+00 -8.5287850296735410e+00 0.0000000000000000e+00 0 0 0
329 0 1 1.1595644570138219e-01 -3.4465663277395819e+00 0.0000000000000000e+00 0 0 0
330 0 1 8.8817826114656881e+00 6.1512833838054775e+00 0.0000000000000000e+00 0 0 0
331 0 1 9.0702746875853535e+00 -8.3983318779595759e+00 0.0000000000000000e+00 0 0 0
332 0 1 8.2387915484162519e+00 -9.1874214921778705e+00 0.0000000000000000e+00 0 0 0
333 0 1 3.8634164103442039e+00 3.3532717816390445e+00 0.0000000000000000e+00 0 0 0
334 0 1 -5.0952835777765282e+00 -3.3490399643046809e+00 0.0000000000000000e+00 0 0 0
335 0 1 6.0671070331550965e+00 2.4250549843068470e+00 0.0000000000000000e+00 0 0 0
336 0 1 -4.9972671718675414e+00 3.4780959849852966e+00 0.0000000000000000e+00 0 0 0
337 0 1 -3.8464929350018906e+00 1.5447249526905900e+00 0.0000000000000000e+00 0 0 0
338 0 1 -5.2481685082079972e+00 4.4988614916605218e+00 0.0000000000000000e+00 0 0 0
339 0 1 4.7732752478674279e+00 8.9336382722069345e+00 0.0000000000000000e+00 0 0 0
340 0 1 3.9592431563966670e+00 7.3122731860788193e+00 0.0000000000000000e+00 0 0 0
341 0 1 3.0999257940607450e-01 -6.5723432178874841e+00 0.0000000000000000e+00 0 0 0
342 0 1 7.9932136725211045e+00 -5.8494400093969565e+00 0.0000000000000000e+00 0 0 0
343 0 1 6.3241396479483143e+00 -3.4104146461258633e+00 0.0000000000000000e+00 0 0 0
344 0 1 8.7859292385523702e+00 1.7995857772399830e+00 0.0000000000000000e+00 0 0 0
345 0 1 -7.8203601705106607e-01 1.2060691822036631e+00 0.0000000000000000e+00 0 0 0
346 0 1 -3.5030516168691372e+00 -1.5345645459606239e+00 0.0000000000000000e+00 0 0 0
347 0 1 -1.2685635489554308e+00 7.7371302361571992e+00 0.0000000000000000e+00 0 0 0
348 0 1 -6.6770172527546423e+00 3.0707713592500880e+00 0.0000000000000000e+00 0 0 0
349 0 1 -2.6853307018210160e+00 9.7246333247480443e+00 0.0000000000000000e+00 0 0 0
350 0 1 -9.6691183689567808e+00 7.8420655498674385e-01 0.0000000000000000e+00 0 0 0
351 0 1 6.2876481062284917e+00 -7.2049735319402268e+00 0.0000000000000000e+00 0 0 0
352 0 1 -6.4276511382636592e-01 -5.0022259818843988e+00 0.0000000000000000e+00 0 0 0