LAMMPS data file via write_data, version 18 Jun 2019, timestep = 0

459 atoms
1 atom types
1372 bonds
1372 bond types
2273 angles
2273 angle types

-1.0000000000000000e+01 1.0000000000000000e+01 xlo xhi
-1.0000000000000000e+01 1.0000000000000000e+01 ylo yhi
-1.0000000000000001e-01 1.0000000000000001e-01 zlo zhi
0.0000000000000000e+00 0.0000000000000000e+00 0.0000000000000000e+00 xy xz yz

Masses

1 1

Pair Coeffs # zero

1

Bond Coeffs # harmonic

1 1 1.110502680321258
2 1 0.915775804235951
3 1 1.0581283235857515
4 1 0.9744684662875552
5 1 0.9258529406973919
6 1 0.9017186473766408
7 1 1.0747029832947208
8 1 0.9766276222952448
9 1 0.9677807149509018
10 1 0.9812368304854993
11 1 0.9788789350511158
12 1 1.0453514533341914
13 1 1.0735598778803142
14 1 1.0423465456113505
15 1 1.0490517265064836
16 1 0.8802582273327814
17 1 0.8281486261977006
18 1 1.124840241308827
19 1 0.9390998755488311
20 1 1.1203527691035917
21 1 0.8736455414243011
22 1 0.9170229410351511
23 1 1.0339122680664543
24 1 1.0864745048735458
25 1 1.104984870123069
26 1 0.8314201063964374
27 1 1.088358526807991
28 1 0.924421901405962
29 1 0.9180547344572279
30 1 0.945434419096465
31 1 1.0654137319202313
32 1 1.037506529853499
33 1 0.9945321119765564
34 1 1.0389141048890531
35 1 0.9677956226316043
36 1 1.0307968212523895
37 1 1.0000633245968524
38 1 0.9752210218405338
39 1 1.0236478932157969
40 1 1.0384853714793498
41 1 0.971169381105299
42 1 0.9672882420159152
43 1 1.1040680940123802
44 1 0.8799521017326565
45 1 0.91927622774001
46 1 1.0164998862459727
47 1 1.0721813686785275
48 1 0.9164704341565141
49 1 0.8740161112029015
50 1 0.8732083311515167
51 1 1.0906539907663266
52 1 1.0815481151215414
53 1 1.0035790857769338
54 1 1.016835594429114
55 1 1.013098064668667
56 1 0.9914919699953949
57 1 0.8989686645640813
58 1 1.1266520159995528
59 1 1.0499756280422698
60 1 1.0234375639483517
61 1 0.967176183136783
62 1 1.0120627784307368
63 1 0.9658930433531989
64 1 1.0229896724804026
65 1 1.112058945433307
66 1 1.085807090489874
67 1 1.110133328954904
68 1 1.137010820006594
69 1 0.9350444650321079
70 1 0.9229534894309998
71 1 1.072381362434533
72 1 1.0479461995815837
73 1 1.0910672158852508
74 1 19.455881273811933
75 1 19.02111887583752
76 1 19.700777988463855
77 1 0.9933327924951978
78 1 0.9865808244524523
79 1 1.0740495586750605
80 1 0.9274902899847817
81 1 1.0465856447713808
82 1 1.1002193476275788
83 1 1.0580454441752087
84 1 0.8358112919831733
85 1 18.9474107489502
86 1 0.8661969904916199
87 1 1.0410453483868947
88 1 0.954850960226394
89 1 0.9570313071030623
90 1 1.0001698816442766
91 1 1.0377886285231508
92 1 0.9719328433521474
93 1 1.0706222564948507
94 1 0.9523845565775952
95 1 0.9084022244220512
96 1 19.05591143383383
97 1 19.412156072838666
98 1 0.9939074439664388
99 1 0.9834153116539874
100 1 1.0497361038477433
101 1 0.9349310135759378
102 1 0.914595980756944
103 1 1.089448424293549
104 1 1.0286050580484072
105 1 0.9890950678894392
106 1 0.9756464457103481
107 1 1.0588789313846878
108 1 0.9686129241876652
109 1 0.9471231820488546
110 1 19.34082189847969
111 1 0.8151602800878504
112 1 0.9829182975399509
113 1 19.193062451554756
114 1 1.0606807072768893
115 1 1.0555108172468468
116 1 1.0462803539329302
117 1 0.9362818461997555
118 1 19.010818047761045
119 1 1.0236048681604413
120 1 0.8842730452522212
121 1 0.8545269541280965
122 1 0.9014523004181954
123 1 0.9482302195140695
124 1 1.074803499438916
125 1 0.884026004210683
126 1 0.887968983904653
127 1 0.8991710098906773
128 1 0.9206280268657901
129 1 1.0965168535493002
130 1 0.8697735262178491
131 1 1.1352485307721294
132 1 1.0093755575230599
133 1 18.978081380000873
134 1 1.0488599951997029
135 1 0.9716780332594405
136 1 1.059547000556703
137 1 1.085819582223657
138 1 0.9150921039599766
139 1 1.13613142406184
140 1 0.9479075671833911
141 1 1.1319016108249196
142 1 0.898144685052374
143 1 1.103707308301042
144 1 1.0004931852454895
145 1 0.9444014139935721
146 1 0.9996686015164863
147 1 1.0620873580389947
148 1 19.352598818563663
149 1 19.056676681022974
150 1 19.7217397087043
151 1 1.021476444636151
152 1 1.0286288246877575
153 1 1.1334546449965748
154 1 0.9222223858048626
155 1 1.1874058103588878
156 1 1.112817273703524
157 1 1.0127813322750472
158 1 1.0858021917103133
159 1 1.0081483756817997
160 1 1.026505294675397
161 1 19.44835956260882
162 1 1.1492972257757026
163 1 19.638559224510804
164 1 1.026252724315414
165 1 0.8617214324564855
166 1 0.8840430741003017
167 1 0.9569818426223449
168 1 1.062761019557574
169 1 0.991288035268367
170 1 1.0476233824913914
171 1 0.9831178912248942
172 1 0.9829996921274387
173 1 0.7912356378988674
174 1 0.9232354215321137
175 1 0.9736179859966451
176 1 0.881093694573112
177 1 0.8240248843116487
178 1 0.9531159864649309
179 1 1.0307527300568116
180 1 0.9643401221331033
181 1 1.0980371292640996
182 1 1.0296800539039725
183 1 1.1235146269886047
184 1 1.085557140196053
185 1 18.93269253616119
186 1 1.1213588969199477
187 1 0.9841455076550029
188 1 1.0339789530102943
189 1 1.009804551765719
190 1 0.9642193265836376
191 1 0.9613855260165527
192 1 0.9208447881274712
193 1 1.0861458329349902
194 1 0.8835830117516177
195 1 0.934617681474593
196 1 0.9220190121165319
197 1 0.9099292537477309
198 1 0.9993434732730024
199 1 1.060491763516261
200 1 1.0673992680090112
201 1 1.0641326603382264
202 1 0.9345468319566163
203 1 1.0219239448889645
204 1 18.998501112864403
205 1 1.0873322287919134
206 1 0.9184383513735881
207 1 1.0239622663477361
208 1 0.9865603396002515
209 1 0.9399578752940625
210 1 1.1120535981923951
211 1 0.9389300681366214
212 1 0.9862514526451671
213 1 0.9342413080932179
214 1 0.8828716836712728
215 1 1.0908791329764727
216 1 1.082852931106087
217 1 0.9402094607150061
218 1 1.0619987132575008
219 1 1.0036516780074363
220 1 0.944212996145607
221 1 1.079514795727417
222 1 0.9955319733236107
223 1 0.9246279714341443
224 1 1.1282157014949177
225 1 1.0899874518816894
226 1 1.0503767977053322
227 1 1.0923200090612686
228 1 1.0853192489055599
229 1 0.9437932959889193
230 1 0.9034458091358815
231 1 1.0321049016602035
232 1 1.198421563226527
233 1 0.7172171397165038
234 1 1.1773828835550435
235 1 1.0159763676967384
236 1 0.9864210780231987
237 1 1.1144339875583187
238 1 0.9671543095340509
239 1 1.087176326884427
240 1 0.9132697583965709
241 1 0.8903340507845694
242 1 0.908296077644815
243 1 0.9437681691437295
244 1 0.9218066084705068
245 1 0.9812897927315443
246 1 1.0512312647284618
247 1 0.9705578622183948
248 1 0.996226326709646
249 1 1.0340612108039837
250 1 0.9366229558008207
251 1 1.002452281271938
252 1 1.0481924838925003
253 1 0.9860368676868926
254 1 1.0401317363471958
255 1 1.0087187394453812
256 1 0.9588218678923216
257 1 0.9655209051232501
258 1 1.0570905540456534
259 1 0.9888419311473288
260 1 0.9796746515808474
261 1 0.9771229287804604
262 1 0.8954801352456513
263 1 0.826079374375615
264 1 0.9431243322024477
265 1 0.9995784766458419
266 1 1.0711314375170378
267 1 0.8380792162599874
268 1 0.8764894184102588
269 1 0.9700391797652742
270 1 1.1180405358879857
271 1 19.315834593327143
272 1 1.066966310620501
273 1 0.9829974540714314
274 1 0.9540502888700987
275 1 1.117676091755488
276 1 0.9522576856082698
277 1 0.9201248356683909
278 1 1.00587730959702
279 1 0.9665858384435486
280 1 1.0755611491362465
281 1 1.1212235229396759
282 1 1.0780974884289496
283 1 1.097594731177691
284 1 1.1735854218776622
285 1 1.1369635500059911
286 1 0.9168809307801999
287 1 1.0951785743059896
288 1 0.9359603452503223
289 1 1.0222314640028751
290 1 1.0444743364624454
291 1 0.959745192413727
292 1 0.9056776798348891
293 1 0.9013749307486978
294 1 0.985240043070737
295 1 1.093873620877241
296 1 19.04032412969337
297 1 0.9825898325258774
298 1 1.0901348207573802
299 1 0.8632798686412592
300 1 1.1461041813786965
301 1 0.8717476406845337
302 1 0.9648775015863834
303 1 1.1029225986112041
304 1 1.0707767177514516
305 1 1.023474041999182
306 1 0.9096691839463519
307 1 0.9735812112277893
308 1 0.9891053277306915
309 1 0.9889526109703758
310 1 1.0279946461753753
311 1 0.9779683122298938
312 1 0.9953518543634179
313 1 0.9540116302235214
314 1 0.9494707366658465
315 1 1.0709780732520322
316 1 0.9159616097104714
317 1 1.115176759984244
318 1 0.9663215167955247
319 1 0.7969277458659727
320 1 1.1375951970695137
321 1 1.0320180371666368
322 1 1.1379424072927438
323 1 1.0257437143052084
324 1 0.7920540481502336
325 1 0.9471036593448864
326 1 0.9951137962509607
327 1 0.8897938474799035
328 1 0.9556838454455567
329 1 1.0840783558911526
330 1 1.023674138643107
331 1 0.9487316808201199
332 1 0.9656274929470898
333 1 0.9792830188342627
334 1 1.0910530362636168
335 1 0.9187537159842543
336 1 0.8216219889264387
337 1 1.0204353662932704
338 1 0.9425315158709815
339 1 0.8252955380413286
340 1 19.045037017915995
341 1 1.00903706086966
342 1 1.0555737974296064
343 1 1.018213819749563
344 1 0.9552985796820641
345 1 1.0572879231569736
346 1 1.0129268513437633
347 1 0.9331682264678934
348 1 0.9718659732393187
349 1 1.1288410690092558
350 1 1.079745932489888
351 1 0.9903761978241391
352 1 0.8962364659780218
353 1 1.145921367837693
354 1 0.9847976101762135
355 1 1.0479197159579385
356 1 1.0263255473146884
357 1 0.8168317682152704
358 1 1.1025807371763252
359 1 0.84440753769836
360 1 0.9373078767821782
361 1 1.0843805496687724
362 1 0.8609052847503583
363 1 0.9041209519168383
364 1 19.024973245077874
365 1 0.7994518764277014
366 1 1.1737496863659862
367 1 0.9109863737718866
368 1 1.0219202064879542
369 1 0.8331525444805955
370 1 1.1972211286320347
371 1 0.9571141594889764
372 1 1.0364495326111678
373 1 19.536864469684968
374 1 18.980357383558943
375 1 19.44948985529898
376 1 0.8917782992273724
377 1 1.1358439069092423
378 1 1.0381279173216296
379 1 1.0156510673825105
380 1 0.9086240038000286
381 1 1.0683621256966556
382 1 0.9647669886020188
383 1 1.0275925952523481
384 1 1.0884939922786172
385 1 0.939705279329768
386 1 1.084659284295515
387 1 1.1167255229319248
388 1 1.0190381526682448
389 1 0.9371604694708728
390 1 1.084610573793077
391 1 1.1433547850583712
392 1 0.8778494488206074
393 1 1.0522273654317518
394 1 0.98561043801779
395 1 1.049946485807004
396 1 0.9820585166097223
397 1 1.072129004629422
398 1 0.9465510153482065
399 1 1.0336273215404055
400 1 1.1353119798052942
401 1 1.0358941938313049
402 1 1.1234507824403932
403 1 1.0852871798788304
404 1 1.0755260934115394
405 1 0.9336020801470841
406 1 1.1395835759988862
407 1 0.9983897157485114
408 1 1.0164402912620243
409 1 1.0411822986124477
410 1 0.8913079629893419
411 1 0.9814235428787759
412 1 0.984744955200308
413 1 1.1202225065871778
414 1 0.9320787201152458
415 1 0.9415542732990124
416 1 1.089192838835569
417 1 1.0297526839523787
418 1 1.0201250803778241
419 1 0.9403222306610931
420 1 0.9184084751297833
421 1 1.0294023010604436
422 1 1.0320197831601818
423 1 1.0108873981721873
424 1 0.9378959821026881
425 1 1.0992849211122628
426 1 0.9802192866360459
427 1 1.0556594777203683
428 1 0.8616480486208282
429 1 1.1271474175322231
430 1 1.0329467253989388
431 1 0.9039678910164413
432 1 0.9772234589589617
433 1 0.9610541725494264
434 1 1.01853785772558
435 1 1.065319840265841
436 1 1.0843478619821403
437 1 0.964849436870101
438 1 0.9241501148311076
439 1 0.9468909119460645
440 1 1.0216715320994647
441 1 1.0237720871860523
442 1 1.0407700813117082
443 1 0.9551991375506574
444 1 0.9990318804580963
445 1 1.1072403521668814
446 1 0.8289663357604516
447 1 1.0080403126841238
448 1 0.9307475858995566
449 1 1.0772203026921592
450 1 1.0031346786990094
451 1 0.925480620361089
452 1 1.0356329315703392
453 1 0.9698655803541727
454 1 1.079617749932719
455 1 1.0016065224398527
456 1 0.9607317725327946
457 1 1.0455872754960946
458 1 0.9598879087079689
459 1 1.0089063189770582
460 1 1.0001617545168968
461 1 1.0344978766467419
462 1 0.9659577451925234
463 1 1.0188663049611213
464 1 0.9818326279785284
465 1 1.0177012424960314
466 1 0.9782839919055235
467 1 1.041075993784328
468 1 1.0268013184158697
469 1 1.036722679898116
470 1 1.0058607644608104
471 1 1.1056379473802191
472 1 0.9419410405152908
473 1 0.9770985231728999
474 1 19.042802440747504
475 1 0.9850653864987866
476 1 19.12994026808067
477 1 1.1028883085715473
478 1 1.117542757633301
479 1 0.8797915098582655
480 1 0.9548520966973197
481 1 18.92380746514414
482 1 1.1085846808204867
483 1 1.0518727767957112
484 1 1.0750242527739096
485 1 1.0740983843358425
486 1 1.0235112101142025
487 1 0.9733527421574832
488 1 1.0205270435861513
489 1 1.0995612444997318
490 1 19.324071530427588
491 1 0.9859910190275826
492 1 18.961089165415107
493 1 0.9486581988651888
494 1 0.9918851235662238
495 1 0.8483813845972787
496 1 1.0474938864208057
497 1 0.8887697611569991
498 1 1.111040266967511
499 1 1.07782510679648
500 1 1.0237508563430422
501 1 0.955558150119824
502 1 1.1089467027184101
503 1 0.91970242782974
504 1 1.073650390849871
505 1 1.0660393814849771
506 1 1.0242705191006216
507 1 0.9620715218092147
508 1 1.0828988296821596
509 1 1.029122429008986
510 1 0.9698187161503073
511 1 0.950413575315678
512 1 0.955072956363272
513 1 19.63976968643977
514 1 0.81327252231771
515 1 19.741773308294892
516 1 1.1327071981441217
517 1 0.9913966502738926
518 1 0.9457244678933895
519 1 1.0374314643524942
520 1 1.0053209667209064
521 1 1.1572055782372432
522 1 0.8010146247142541
523 1 0.9510946889476334
524 1 19.951578476415126
525 1 0.8462169592803159
526 1 19.095493524111212
527 1 19.939197994176457
528 1 1.0114581765262458
529 1 0.9596707971614564
530 1 1.0046583678731205
531 1 1.036165221846962
532 1 0.9611091828857334
533 1 1.0957366822177312
534 1 0.985157959225153
535 1 1.115829957515169
536 1 0.9127669954233382
537 1 1.0969881628324414
538 1 1.1331927770871135
539 1 1.162175199561676
540 1 1.1327310150141296
541 1 1.0838927891066465
542 1 1.0797567856931376
543 1 1.1600910935850928
544 1 1.176101444282181
545 1 1.1532036399545587
546 1 1.1859941916737098
547 1 1.0982147168817045
548 1 1.1196361641958128
549 1 1.0632244763572887
550 1 1.0446996322251763
551 1 0.8803699668326762
552 1 1.1285973903415083
553 1 0.9726419748674809
554 1 1.0226613792875618
555 1 1.0144247275945493
556 1 0.9906657291991171
557 1 0.9765239039958947
558 1 0.9975647555802536
559 1 1.0415444914327108
560 1 1.0327531251377233
561 1 0.9520215806155785
562 1 0.9696845921204145
563 1 1.02814979533375
564 1 18.905417452553394
565 1 1.0127425460197896
566 1 0.9625134990114608
567 1 1.1480522824541248
568 1 1.0542316822128635
569 1 1.1437011561735402
570 1 1.146521697305414
571 1 1.0955333719308638
572 1 1.1141755597645857
573 1 1.0515673124280185
574 1 18.911194843994686
575 1 1.0117966599090544
576 1 1.0074708283332414
577 1 0.9453114645759014
578 1 0.9376785940487489
579 1 0.9443398318392889
580 1 1.0934121976331013
581 1 0.9879106927491009
582 1 0.8534082541408012
583 1 1.0596774251655372
584 1 0.9883614823261504
585 1 0.929406184598476
586 1 1.1366052389749866
587 1 0.9851353810313902
588 1 0.8644186724751227
589 1 0.9438969238102985
590 1 1.0458125319393705
591 1 0.8333728393900209
592 1 0.9817407159731686
593 1 0.9595181816216123
594 1 1.0062011853524022
595 1 0.8188653403693601
596 1 0.991703578922402
597 1 1.0661517675021719
598 1 0.8257951008080129
599 1 0.8957042201575105
600 1 1.0756990900370438
601 1 0.8518014932717372
602 1 0.9815399638384776
603 1 18.874753952234304
604 1 0.9752905919473135
605 1 1.0419743032235615
606 1 19.342719543276242
607 1 1.0389920020316554
608 1 0.9669156049204061
609 1 0.9936522000816445
610 1 1.0271104294143534
611 1 1.084407544761609
612 1 1.0729141315439505
613 1 0.9949308228492488
614 1 0.9664284975552786
615 1 19.031460705494876
616 1 19.13641199673728
617 1 0.9687836701170769
618 1 1.028534821188561
619 1 1.0217852704015133
620 1 0.9290945066588169
621 1 1.1421457336991072
622 1 0.8961562080533847
623 1 0.9608734257932697
624 1 1.1007941437555704
625 1 0.9724541950555764
626 1 1.0126285856028157
627 1 0.9996097636516555
628 1 1.00406366336636
629 1 1.1239099281632912
630 1 0.8984556267377735
631 1 0.9964370245207237
632 1 0.9881672924774506
633 1 19.478970136974766
634 1 19.670075763016964
635 1 1.0554671072219044
636 1 1.088825045973483
637 1 0.9985035857799012
638 1 0.984740053294715
639 1 1.0406997321905036
640 1 1.038806102562555
641 1 0.9906928422251958
642 1 0.9616156097492988
643 1 1.0014303330086074
644 1 1.0358020554317062
645 1 0.959275394805328
646 1 0.850881018707648
647 1 19.226297922991993
648 1 1.1231511133008019
649 1 1.1769980308324521
650 1 1.0788356907929664
651 1 1.0660555217556267
652 1 1.1750997973204174
653 1 0.7957438444309515
654 1 0.99773822729591
655 1 0.8032859942554454
656 1 0.6929537077671083
657 1 1.071569710535287
658 1 0.9841743440215847
659 1 1.0024948059744518
660 1 0.9590057755395286
661 1 1.0176120261758708
662 1 1.0027409232953173
663 1 1.0314157455497732
664 1 0.8942839034469794
665 1 1.0959772123233456
666 1 0.9439512266717961
667 1 0.8344968523284636
668 1 0.8899243720880121
669 1 1.054387037424601
670 1 1.1569913696782055
671 1 0.8181960192263391
672 1 19.162719215888913
673 1 18.98770324051837
674 1 1.0881251657889914
675 1 1.0652755696083054
676 1 1.0060226371065046
677 1 1.0472617901710592
678 1 0.8928959667692751
679 1 1.077708765355298
680 1 0.8312682649887461
681 1 1.1676666996157992
682 1 1.0000182916154117
683 1 1.1319725831777494
684 1 1.0181055309110678
685 1 1.0239567309592739
686 1 1.0369467214642207
687 1 0.9376340354980262
688 1 1.1190973383265428
689 1 0.9167280256718751
690 1 1.046982693869913
691 1 1.0496654479866931
692 1 0.8055192672078304
693 1 0.9919886676016919
694 1 1.129677067780523
695 1 0.9706938622626031
696 1 0.8248407739123951
697 1 1.0411930896620292
698 1 1.0842013435234024
699 1 0.9804413290574469
700 1 19.40365297816873
701 1 0.9954868132521386
702 1 1.127463113384628
703 1 1.0166841276842389
704 1 1.0106170312693945
705 1 0.9977384846487944
706 1 1.1091918518944874
707 1 1.0417472856537473
708 1 0.9862917846031201
709 1 0.9487428177174699
710 1 1.0444394516272453
711 1 1.0887565546029676
712 1 0.9791716482323687
713 1 1.1021567870853881
714 1 1.0874625877047879
715 1 0.9004110000084774
716 1 0.8971929653599108
717 1 1.075552336321119
718 1 0.9603393405306478
719 1 0.8115070357857525
720 1 1.1142175603731572
721 1 0.9468924653301305
722 1 1.0508082423086322
723 1 0.9713115522565223
724 1 1.0501199506130712
725 1 1.0126844577333274
726 1 0.978169286170983
727 1 1.0169469342113087
728 1 1.0286171684412444
729 1 0.9941296689132216
730 1 1.0214378133279556
731 1 1.0308072485250241
732 1 0.9894549521002453
733 1 1.080940902796308
734 1 1.065611715964377
735 1 19.120283075524434
736 1 19.034867907758475
737 1 0.9289757815660492
738 1 1.0634502247374704
739 1 0.9794977793003495
740 1 0.9840273598976724
741 1 0.9487036424661577
742 1 1.1125582530666607
743 1 1.102389684798489
744 1 1.1123930420180868
745 1 1.0417887696125316
746 1 0.9635833759415825
747 1 1.0825056661976478
748 1 1.098069330848819
749 1 1.1716572502817868
750 1 1.0297217530744898
751 1 1.0465459217618345
752 1 1.0652869476297986
753 1 0.9982781674895335
754 1 0.9954057507904803
755 1 1.0870788881228433
756 1 0.9084920745570045
757 1 1.1258271049383484
758 1 0.852185406668575
759 1 0.9590400983729922
760 1 1.1043198130922591
761 1 1.0159408068663318
762 1 0.9597391427870717
763 1 1.018706500664325
764 1 1.0477360245318827
765 1 0.9917432641195709
766 1 0.9262431898032019
767 1 0.9594314546183814
768 1 1.0560551491796022
769 1 19.086020982396352
770 1 19.416680741917503
771 1 1.1462085415553436
772 1 1.0868914708414117
773 1 1.1701209251757148
774 1 1.1429727111530594
775 1 1.0537938423538296
776 1 0.9707274467619702
777 1 1.0730096020872784
778 1 1.1016922828713176
779 1 0.9794727714023572
780 1 1.1303728544336402
781 1 0.8752144810179714
782 1 0.9171017055893893
783 1 1.0731336297784246
784 1 0.8454941627058992
785 1 1.1275921245845724
786 1 1.066201993950452
787 1 0.9900034516407161
788 1 1.026809421040411
789 1 0.9754275559234913
790 1 18.874758427685038
791 1 19.50669913023224
792 1 0.9126986758646658
793 1 0.9682080795262694
794 1 1.0739644861872868
795 1 0.9770942959038126
796 1 1.141015704046775
797 1 0.8920639915725388
798 1 1.0542334798777393
799 1 0.9793457982079509
800 1 1.0643847424105215
801 1 0.9281031900111999
802 1 0.9042823191759669
803 1 1.0021267337820947
804 1 1.1300594696084094
805 1 1.1014531679882884
806 1 1.0067419657412668
807 1 0.9734653892646137
808 1 0.9395189764787347
809 1 0.9640003822352273
810 1 1.0226799580620896
811 1 1.004364558255234
812 1 1.1197657980201134
813 1 1.000124911741477
814 1 0.9504105562903775
815 1 1.1136435487209004
816 1 0.987854154225905
817 1 1.0141340123300941
818 1 0.9948949859614508
819 1 19.26144450061723
820 1 0.8882186247001684
821 1 0.9807458251211574
822 1 0.804085812267737
823 1 1.1479084747995845
824 1 1.002890537380716
825 1 0.9273377868066428
826 1 18.93431126119141
827 1 19.27928427085856
828 1 18.872245342316113
829 1 1.1117285354263922
830 1 19.166406536203677
831 1 0.985188422980422
832 1 0.9533107827327146
833 1 1.021942060735882
834 1 0.9121254038200161
835 1 1.0370563552498444
836 1 0.9626151078285751
837 1 1.0135504539910496
838 1 0.9512163737612891
839 1 1.0310102494238949
840 1 1.0127673656634142
841 1 0.9337176215933889
842 1 1.1758626174655762
843 1 0.8309173794921574
844 1 1.137661269106201
845 1 1.0524785389036169
846 1 1.0192190795386724
847 1 1.043513963125066
848 1 0.8944328015833922
849 1 0.9479768327762054
850 1 0.9143679219493969
851 1 0.9134360820676356
852 1 1.1047045740395096
853 1 1.0261289964921285
854 1 1.1343063513001763
855 1 0.9957940034902176
856 1 1.1523495128421648
857 1 1.0994182488850865
858 1 0.9446285623755027
859 1 0.9902014880143274
860 1 0.9614468342114226
861 1 0.9499319259616243
862 1 19.0181050355059
863 1 0.9702575047000369
864 1 1.0806557031653246
865 1 19.065445319363896
866 1 1.0467804120312687
867 1 19.088051873066515
868 1 19.196891704700786
869 1 1.126771389187393
870 1 0.9822671511462909
871 1 0.9869802208220121
872 1 1.0440505335358303
873 1 0.9554473269520379
874 1 1.0089035931408978
875 1 0.9682566211796406
876 1 1.1573436519200078
877 1 0.9751319954641925
878 1 1.141437164919558
879 1 1.054454486817624
880 1 1.0867901226973145
881 1 1.0498728511738307
882 1 1.0516864573039564
883 1 1.1915149349067302
884 1 0.9582598439320418
885 1 0.9375492170553157
886 1 1.147176261054207
887 1 1.0117788438035402
888 1 1.1359727803194002
889 1 0.9487033321704182
890 1 0.9444200510830822
891 1 1.097776978123136
892 1 0.8669185389779124
893 1 0.9450821090097045
894 1 0.8872013179195933
895 1 0.9336867504999011
896 1 0.9200155383339551
897 1 18.97997780067596
898 1 0.8161030095844181
899 1 1.164433252847617
900 1 18.985010212141198
901 1 0.8964296232123071
902 1 1.048498190952136
903 1 1.1353525545193959
904 1 1.0315783269153151
905 1 1.0500313591984964
906 1 1.0409848768389653
907 1 1.0393303954071613
908 1 1.034889496780832
909 1 0.9620918298198726
910 1 1.0561378573142055
911 1 0.9693376365841826
912 1 1.0502267097372402
913 1 1.0566252829135803
914 1 19.626000334409174
915 1 1.1757394233333611
916 1 19.001828407783385
917 1 19.654579099440102
918 1 1.0191682051330266
919 1 0.9339674239700425
920 1 0.9390579078792197
921 1 0.9023570615401032
922 1 0.9101144312022412
923 1 1.1229676088647316
924 1 0.9233586046606536
925 1 0.866402982261932
926 1 1.0911141630399694
927 1 1.094585334462383
928 1 0.9322271052079897
929 1 1.109394667680653
930 1 1.0289111396541586
931 1 1.0939314946771488
932 1 0.9752997836557842
933 1 1.0913129770766927
934 1 1.0989307597392213
935 1 1.1195338578328806
936 1 1.1202181920761345
937 1 1.0348697663589657
938 1 0.9469277395567325
939 1 0.9544750404687522
940 1 1.0417124858628755
941 1 0.9739429709380517
942 1 0.9993026515373415
943 1 0.936106100055098
944 1 0.9560254410473041
945 1 1.1317367744531814
946 1 0.9742308054150042
947 1 1.0033917560241736
948 1 0.8433684909532161
949 1 0.9872759169963329
950 1 1.0081564375045398
951 1 0.9146158031656234
952 1 1.0945610247777093
953 1 1.0627464567533875
954 1 1.1207106614409184
955 1 1.1184162049575928
956 1 1.1472544517251797
957 1 1.177211714480886
958 1 1.0495584783118266
959 1 1.1688601091530688
960 1 1.001788690614129
961 1 0.9795216296227912
962 1 1.0457806637762035
963 1 0.9525379638986005
964 1 1.0331751740204864
965 1 0.8430699846892715
966 1 1.0347967161911802
967 1 0.9777595086082279
968 1 1.076836029460183
969 1 0.9682019442655218
970 1 1.1403893979262247
971 1 1.0365817735696428
972 1 0.8648021905422948
973 1 1.051718266778657
974 1 0.9171564516536105
975 1 1.1525033924086345
976 1 0.8767705692103279
977 1 1.0336111208667589
978 1 1.0425391729249527
979 1 0.9419059189794483
980 1 1.010493556385347
981 1 0.9523189622108912
982 1 18.96127439689721
983 1 1.0628172115245813
984 1 1.0603211629700335
985 1 1.0470001797030393
986 1 0.9091160383069176
987 1 1.009972912116842
988 1 1.0329794993946977
989 1 0.9207587995306559
990 1 18.993393775042776
991 1 0.9096985762828851
992 1 1.093250570530618
993 1 0.9445101027814758
994 1 1.1510046188157819
995 1 0.8206465008985726
996 1 0.9295067573130334
997 1 1.07016847289783
998 1 0.8356508305025189
999 1 1.0749625014310342
1000 1 1.1115656582220308
1001 1 0.8780684770951237
1002 1 0.8297418328308904
1003 1 1.034613738838065
1004 1 19.26858525013612
1005 1 1.0943037713569383
1006 1 0.9569318002760991
1007 1 0.9265029313378454
1008 1 0.995399302740031
1009 1 18.997687302740786
1010 1 0.9797284018281058
1011 1 0.9510612825876403
1012 1 1.050511454720591
1013 1 1.0148643027680773
1014 1 0.9565418383228046
1015 1 1.0387374269635727
1016 1 0.9584899500804009
1017 1 1.0044411926738013
1018 1 1.0541393368181458
1019 1 0.9683965089099696
1020 1 0.9913627806089571
1021 1 0.9718467963770705
1022 1 1.0409109810064971
1023 1 0.9941411561807502
1024 1 0.9309263463225819
1025 1 1.0524593565600777
1026 1 1.1369156225245616
1027 1 1.1331952891834738
1028 1 1.0424473699299448
1029 1 1.0725457284208768
1030 1 1.1263241767796175
1031 1 0.9004955395476065
1032 1 1.0865639308564319
1033 1 0.6485386558684315
1034 1 1.1462421541601648
1035 1 1.1412508699395227
1036 1 1.1506859268376863
1037 1 1.0969473513992374
1038 1 1.13760096337726
1039 1 1.1511306754323216
1040 1 0.8409872240288698
1041 1 0.9725431262106653
1042 1 1.0028621926261614
1043 1 1.1082923097783428
1044 1 0.9749205652047261
1045 1 0.9928783329133878
1046 1 1.0461771625618677
1047 1 0.8468408624086585
1048 1 1.0926005734108921
1049 1 0.9172019044930915
1050 1 0.9860021132420782
1051 1 0.9437459958743947
1052 1 0.8935264513162591
1053 1 19.075400272970246
1054 1 0.8661004834717551
1055 1 1.1358816928749946
1056 1 1.0916507277266294
1057 1 1.0721899019355852
1058 1 1.0180049370228483
1059 1 1.0419373522685855
1060 1 0.9993839249508374
1061 1 0.8750359193960863
1062 1 1.100133712256015
1063 1 1.0888830118420905
1064 1 0.9639275180135222
1065 1 0.9792850504778867
1066 1 1.1459431368954245
1067 1 1.018932232542321
1068 1 0.9211865418972411
1069 1 18.900609964772492
1070 1 0.9535663608133559
1071 1 1.004126479735814
1072 1 1.09885351012632
1073 1 1.05689258942853
1074 1 1.0728738427191546
1075 1 1.0731041238723233
1076 1 1.0552063602812605
1077 1 0.8942574048920938
1078 1 0.9549045845333788
1079 1 1.1146644287375347
1080 1 0.8648060701409871
1081 1 0.8332066610872083
1082 1 0.8798279942168262
1083 1 0.9725981127124539
1084 1 1.032367085199557
1085 1 1.0161527759256042
1086 1 19.477615657186593
1087 1 19.530919806335195
1088 1 0.9600786502577872
1089 1 1.0330531986761833
1090 1 0.8205715404402741
1091 1 0.9504719547356969
1092 1 18.93694669629773
1093 1 1.1045477307829177
1094 1 1.0632246681097401
1095 1 19.429978495496673
1096 1 1.157775523544654
1097 1 0.80941259556592
1098 1 0.8474711238378225
1099 1 1.0243773004308985
1100 1 0.9618652027328162
1101 1 1.014145311225619
1102 1 1.037780452941562
1103 1 0.9421473608319766
1104 1 1.0913627109664337
1105 1 1.0336079480030678
1106 1 0.9148582136512313
1107 1 0.9656346057450275
1108 1 0.993229466039647
1109 1 0.9933084541721974
1110 1 0.9359868640592818
1111 1 1.0041318596715239
1112 1 0.9827832673358143
1113 1 0.9372369176966644
1114 1 1.0581645435737754
1115 1 1.0276454404352686
1116 1 0.9163164140937672
1117 1 0.9113477342098902
1118 1 1.0218932408091033
1119 1 1.0375559467230668
1120 1 1.0642028183282504
1121 1 1.0475284443934496
1122 1 1.087276673050637
1123 1 0.8947161599749818
1124 1 0.9640526790129582
1125 1 18.959474616212752
1126 1 19.154470074416402
1127 1 19.589279756547988
1128 1 1.1208168953128597
1129 1 1.1494312971697522
1130 1 1.0951856628268921
1131 1 1.1574947394383264
1132 1 1.148909972163509
1133 1 1.1720462094490072
1134 1 1.0393473868761234
1135 1 0.9647759876969573
1136 1 1.0432769190914615
1137 1 19.034061109364174
1138 1 0.913911103332723
1139 1 0.9839763021612049
1140 1 0.9765817404182046
1141 1 1.0408912810622302
1142 1 1.050258199854767